Program Version,EnergyPlus, Version 9.2.0-921312fa1d, YMD=2023.03.31 11:29
1,5,Environment Title[],Latitude[deg],Longitude[deg],Time Zone[],Elevation[m]
2,8,Day of Simulation[],Month[],Day of Month[],DST Indicator[1=yes 0=no],Hour[],StartMinute[],EndMinute[],DayType
3,5,Cumulative Day of Simulation[],Month[],Day of Month[],DST Indicator[1=yes 0=no],DayType  ! When Daily Report Variables Requested
4,2,Cumulative Days of Simulation[],Month[]  ! When Monthly Report Variables Requested
5,1,Cumulative Days of Simulation[] ! When Run Period Report Variables Requested
6,1,Calendar Year of Simulation[] ! When Annual Report Variables Requested
7,9,Environment,Site Outdoor Air Drybulb Temperature [C] !Monthly [Value,Min,Day,Hour,Minute,Max,Day,Hour,Minute]
8,1,Environment,Site Outdoor Air Wetbulb Temperature [C] !TimeStep
95,1,THERMAL ZONE 1,Zone Air Temperature [C] !Hourly
96,7,THERMAL ZONE 1,Zone Air Relative Humidity [%] !Daily [Value,Min,Hour,Minute,Max,Hour,Minute]
End of Data Dictionary
1,RUN PERIOD 1,  18.51, -99.14,  -6.00,1219.00
2,1, 1, 1, 0, 1, 0.00,10.00,Sunday
8,14.862202914299563
2,1, 1, 1, 0, 1,10.00,20.00,Sunday
8,14.862202914299563
2,1, 1, 1, 0, 1,20.00,30.00,Sunday
8,14.862202914299563
2,1, 1, 1, 0, 1,30.00,40.00,Sunday
8,14.862202914299563
2,1, 1, 1, 0, 1,40.00,50.00,Sunday
8,14.862202914299563
2,1, 1, 1, 0, 1,50.00,60.00,Sunday
8,14.862202914299563
2,1, 1, 1, 0, 1, 0.00,60.00,Sunday
95,18.125599897193884
2,1, 1, 1, 0, 2, 0.00,10.00,Sunday
8,14.862202914299563
2,1, 1, 1, 0, 2,10.00,20.00,Sunday
8,14.862202914299563
2,1, 1, 1, 0, 2,20.00,30.00,Sunday
8,14.862202914299563
2,1, 1, 1, 0, 2,30.00,40.00,Sunday
8,14.862202914299563
2,1, 1, 1, 0, 2,40.00,50.00,Sunday
8,14.862202914299563
2,1, 1, 1, 0, 2,50.00,60.00,Sunday
8,14.862202914299563
2,1, 1, 1, 0, 2, 0.00,60.00,Sunday
95,18.11766532045446
2,1, 1, 1, 0, 3, 0.00,10.00,Sunday
8,14.862202914299563
2,1, 1, 1, 0, 3,10.00,20.00,Sunday
8,14.862202914299563
2,1, 1, 1, 0, 3,20.00,30.00,Sunday
8,14.862202914299563
2,1, 1, 1, 0, 3,30.00,40.00,Sunday
8,14.862202914299563
2,1, 1, 1, 0, 3,40.00,50.00,Sunday
8,14.862202914299563
2,1, 1, 1, 0, 3,50.00,60.00,Sunday
8,14.862202914299563
2,1, 1, 1, 0, 3, 0.00,60.00,Sunday
95,18.109825222981205
2,1, 1, 1, 0, 4, 0.00,10.00,Sunday
8,14.862202914299563
2,1, 1, 1, 0, 4,10.00,20.00,Sunday
8,14.862202914299563
2,1, 1, 1, 0, 4,20.00,30.00,Sunday
8,14.862202914299563
2,1, 1, 1, 0, 4,30.00,40.00,Sunday
8,14.862202914299563
2,1, 1, 1, 0, 4,40.00,50.00,Sunday
8,14.862202914299563
2,1, 1, 1, 0, 4,50.00,60.00,Sunday
8,14.862202914299563
2,1, 1, 1, 0, 4, 0.00,60.00,Sunday
95,18.10207848417271
2,1, 1, 1, 0, 5, 0.00,10.00,Sunday
8,14.862202914299563
2,1, 1, 1, 0, 5,10.00,20.00,Sunday
8,14.862202914299563
2,1, 1, 1, 0, 5,20.00,30.00,Sunday
8,14.862202914299563
2,1, 1, 1, 0, 5,30.00,40.00,Sunday
8,14.862202914299563
2,1, 1, 1, 0, 5,40.00,50.00,Sunday
8,14.862202914299563
2,1, 1, 1, 0, 5,50.00,60.00,Sunday
8,14.862202914299563
2,1, 1, 1, 0, 5, 0.00,60.00,Sunday
95,18.09442399627446
2,1, 1, 1, 0, 6, 0.00,10.00,Sunday
8,14.862202914299563
2,1, 1, 1, 0, 6,10.00,20.00,Sunday
8,14.862202914299563
2,1, 1, 1, 0, 6,20.00,30.00,Sunday
8,14.862202914299563
2,1, 1, 1, 0, 6,30.00,40.00,Sunday
8,14.862202914299563
2,1, 1, 1, 0, 6,40.00,50.00,Sunday
8,14.862202914299563
2,1, 1, 1, 0, 6,50.00,60.00,Sunday
8,14.862202914299563
2,1, 1, 1, 0, 6, 0.00,60.00,Sunday
95,18.08686066428425
2,1, 1, 1, 0, 7, 0.00,10.00,Sunday
8,14.862202914299563
2,1, 1, 1, 0, 7,10.00,20.00,Sunday
8,14.862202914299563
2,1, 1, 1, 0, 7,20.00,30.00,Sunday
8,14.862202914299563
2,1, 1, 1, 0, 7,30.00,40.00,Sunday
8,14.862202914299563
2,1, 1, 1, 0, 7,40.00,50.00,Sunday
8,14.862202914299563
2,1, 1, 1, 0, 7,50.00,60.00,Sunday
8,14.862202914299563
2,1, 1, 1, 0, 7, 0.00,60.00,Sunday
95,18.07938740583886
2,1, 1, 1, 0, 8, 0.00,10.00,Sunday
8,14.862202914299563
2,1, 1, 1, 0, 8,10.00,20.00,Sunday
8,14.862202914299563
2,1, 1, 1, 0, 8,20.00,30.00,Sunday
8,14.862202914299563
2,1, 1, 1, 0, 8,30.00,40.00,Sunday
8,14.862202914299563
2,1, 1, 1, 0, 8,40.00,50.00,Sunday
8,14.862202914299563
2,1, 1, 1, 0, 8,50.00,60.00,Sunday
8,14.862202914299563
2,1, 1, 1, 0, 8, 0.00,60.00,Sunday
95,18.072003151090028
2,1, 1, 1, 0, 9, 0.00,10.00,Sunday
8,14.862202914299563
2,1, 1, 1, 0, 9,10.00,20.00,Sunday
8,14.862202914299563
2,1, 1, 1, 0, 9,20.00,30.00,Sunday
8,14.862202914299563
2,1, 1, 1, 0, 9,30.00,40.00,Sunday
8,14.862202914299563
2,1, 1, 1, 0, 9,40.00,50.00,Sunday
8,14.862202914299563
2,1, 1, 1, 0, 9,50.00,60.00,Sunday
8,14.862202914299563
2,1, 1, 1, 0, 9, 0.00,60.00,Sunday
95,18.06470684258589
2,1, 1, 1, 0,10, 0.00,10.00,Sunday
8,14.862202914299563
2,1, 1, 1, 0,10,10.00,20.00,Sunday
8,14.862202914299563
2,1, 1, 1, 0,10,20.00,30.00,Sunday
8,14.862202914299563
2,1, 1, 1, 0,10,30.00,40.00,Sunday
8,14.862202914299563
2,1, 1, 1, 0,10,40.00,50.00,Sunday
8,14.862202914299563
2,1, 1, 1, 0,10,50.00,60.00,Sunday
8,14.862202914299563
2,1, 1, 1, 0,10, 0.00,60.00,Sunday
95,18.057497435152319
2,1, 1, 1, 0,11, 0.00,10.00,Sunday
8,14.862202914299563
2,1, 1, 1, 0,11,10.00,20.00,Sunday
8,14.862202914299563
2,1, 1, 1, 0,11,20.00,30.00,Sunday
8,14.862202914299563
2,1, 1, 1, 0,11,30.00,40.00,Sunday
8,14.862202914299563
2,1, 1, 1, 0,11,40.00,50.00,Sunday
8,14.862202914299563
2,1, 1, 1, 0,11,50.00,60.00,Sunday
8,14.862202914299563
2,1, 1, 1, 0,11, 0.00,60.00,Sunday
95,18.050373895766126
2,1, 1, 1, 0,12, 0.00,10.00,Sunday
8,14.862202914299563
2,1, 1, 1, 0,12,10.00,20.00,Sunday
8,14.862202914299563
2,1, 1, 1, 0,12,20.00,30.00,Sunday
8,14.862202914299563
2,1, 1, 1, 0,12,30.00,40.00,Sunday
8,14.862202914299563
2,1, 1, 1, 0,12,40.00,50.00,Sunday
8,14.862202914299563
2,1, 1, 1, 0,12,50.00,60.00,Sunday
8,14.862202914299563
2,1, 1, 1, 0,12, 0.00,60.00,Sunday
95,18.043335203434695
2,1, 1, 1, 0,13, 0.00,10.00,Sunday
8,14.862202914299563
2,1, 1, 1, 0,13,10.00,20.00,Sunday
8,14.862202914299563
2,1, 1, 1, 0,13,20.00,30.00,Sunday
8,14.862202914299563
2,1, 1, 1, 0,13,30.00,40.00,Sunday
8,14.862202914299563
2,1, 1, 1, 0,13,40.00,50.00,Sunday
8,14.862202914299563
2,1, 1, 1, 0,13,50.00,60.00,Sunday
8,14.862202914299563
2,1, 1, 1, 0,13, 0.00,60.00,Sunday
95,18.036380349066677
2,1, 1, 1, 0,14, 0.00,10.00,Sunday
8,14.862202914299563
2,1, 1, 1, 0,14,10.00,20.00,Sunday
8,14.862202914299563
2,1, 1, 1, 0,14,20.00,30.00,Sunday
8,14.862202914299563
2,1, 1, 1, 0,14,30.00,40.00,Sunday
8,14.862202914299563
2,1, 1, 1, 0,14,40.00,50.00,Sunday
8,14.862202914299563
2,1, 1, 1, 0,14,50.00,60.00,Sunday
8,14.862202914299563
2,1, 1, 1, 0,14, 0.00,60.00,Sunday
95,18.029508335353098
2,1, 1, 1, 0,15, 0.00,10.00,Sunday
8,14.862202914299563
2,1, 1, 1, 0,15,10.00,20.00,Sunday
8,14.862202914299563
2,1, 1, 1, 0,15,20.00,30.00,Sunday
8,14.862202914299563
2,1, 1, 1, 0,15,30.00,40.00,Sunday
8,14.862202914299563
2,1, 1, 1, 0,15,40.00,50.00,Sunday
8,14.862202914299563
2,1, 1, 1, 0,15,50.00,60.00,Sunday
8,14.862202914299563
2,1, 1, 1, 0,15, 0.00,60.00,Sunday
95,18.022718176641324
2,1, 1, 1, 0,16, 0.00,10.00,Sunday
8,14.862202914299563
2,1, 1, 1, 0,16,10.00,20.00,Sunday
8,14.862202914299563
2,1, 1, 1, 0,16,20.00,30.00,Sunday
8,14.862202914299563
2,1, 1, 1, 0,16,30.00,40.00,Sunday
8,14.862202914299563
2,1, 1, 1, 0,16,40.00,50.00,Sunday
8,14.862202914299563
2,1, 1, 1, 0,16,50.00,60.00,Sunday
8,14.862202914299563
2,1, 1, 1, 0,16, 0.00,60.00,Sunday
95,18.01600889880211
2,1, 1, 1, 0,17, 0.00,10.00,Sunday
8,14.862202914299563
2,1, 1, 1, 0,17,10.00,20.00,Sunday
8,14.862202914299563
2,1, 1, 1, 0,17,20.00,30.00,Sunday
8,14.862202914299563
2,1, 1, 1, 0,17,30.00,40.00,Sunday
8,14.862202914299563
2,1, 1, 1, 0,17,40.00,50.00,Sunday
8,14.862202914299563
2,1, 1, 1, 0,17,50.00,60.00,Sunday
8,14.862202914299563
2,1, 1, 1, 0,17, 0.00,60.00,Sunday
95,18.009379539113167
2,1, 1, 1, 0,18, 0.00,10.00,Sunday
8,14.862202914299563
2,1, 1, 1, 0,18,10.00,20.00,Sunday
8,14.862202914299563
2,1, 1, 1, 0,18,20.00,30.00,Sunday
8,14.862202914299563
2,1, 1, 1, 0,18,30.00,40.00,Sunday
8,14.862202914299563
2,1, 1, 1, 0,18,40.00,50.00,Sunday
8,14.862202914299563
2,1, 1, 1, 0,18,50.00,60.00,Sunday
8,14.862202914299563
2,1, 1, 1, 0,18, 0.00,60.00,Sunday
95,18.0028291461396
2,1, 1, 1, 0,19, 0.00,10.00,Sunday
8,14.862202914299563
2,1, 1, 1, 0,19,10.00,20.00,Sunday
8,14.862202914299563
2,1, 1, 1, 0,19,20.00,30.00,Sunday
8,14.862202914299563
2,1, 1, 1, 0,19,30.00,40.00,Sunday
8,14.862202914299563
2,1, 1, 1, 0,19,40.00,50.00,Sunday
8,14.862202914299563
2,1, 1, 1, 0,19,50.00,60.00,Sunday
8,14.862202914299563
2,1, 1, 1, 0,19, 0.00,60.00,Sunday
95,17.996356779614336
2,1, 1, 1, 0,20, 0.00,10.00,Sunday
8,14.862202914299563
2,1, 1, 1, 0,20,10.00,20.00,Sunday
8,14.862202914299563
2,1, 1, 1, 0,20,20.00,30.00,Sunday
8,14.862202914299563
2,1, 1, 1, 0,20,30.00,40.00,Sunday
8,14.862202914299563
2,1, 1, 1, 0,20,40.00,50.00,Sunday
8,14.862202914299563
2,1, 1, 1, 0,20,50.00,60.00,Sunday
8,14.862202914299563
2,1, 1, 1, 0,20, 0.00,60.00,Sunday
95,17.98996151031384
2,1, 1, 1, 0,21, 0.00,10.00,Sunday
8,14.862202914299563
2,1, 1, 1, 0,21,10.00,20.00,Sunday
8,14.862202914299563
2,1, 1, 1, 0,21,20.00,30.00,Sunday
8,14.862202914299563
2,1, 1, 1, 0,21,30.00,40.00,Sunday
8,14.862202914299563
2,1, 1, 1, 0,21,40.00,50.00,Sunday
8,14.862202914299563
2,1, 1, 1, 0,21,50.00,60.00,Sunday
8,14.862202914299563
2,1, 1, 1, 0,21, 0.00,60.00,Sunday
95,17.983642419933707
2,1, 1, 1, 0,22, 0.00,10.00,Sunday
8,14.862202914299563
2,1, 1, 1, 0,22,10.00,20.00,Sunday
8,14.862202914299563
2,1, 1, 1, 0,22,20.00,30.00,Sunday
8,14.862202914299563
2,1, 1, 1, 0,22,30.00,40.00,Sunday
8,14.862202914299563
2,1, 1, 1, 0,22,40.00,50.00,Sunday
8,14.862202914299563
2,1, 1, 1, 0,22,50.00,60.00,Sunday
8,14.862202914299563
2,1, 1, 1, 0,22, 0.00,60.00,Sunday
95,17.97739860096691
2,1, 1, 1, 0,23, 0.00,10.00,Sunday
8,14.862202914299563
2,1, 1, 1, 0,23,10.00,20.00,Sunday
8,14.862202914299563
2,1, 1, 1, 0,23,20.00,30.00,Sunday
8,14.862202914299563
2,1, 1, 1, 0,23,30.00,40.00,Sunday
8,14.862202914299563
2,1, 1, 1, 0,23,40.00,50.00,Sunday
8,14.862202914299563
2,1, 1, 1, 0,23,50.00,60.00,Sunday
8,14.862202914299563
2,1, 1, 1, 0,23, 0.00,60.00,Sunday
95,17.97122915659346
2,1, 1, 1, 0,24, 0.00,10.00,Sunday
8,14.862202914299563
2,1, 1, 1, 0,24,10.00,20.00,Sunday
8,14.862202914299563
2,1, 1, 1, 0,24,20.00,30.00,Sunday
8,14.862202914299563
2,1, 1, 1, 0,24,30.00,40.00,Sunday
8,14.862202914299563
2,1, 1, 1, 0,24,40.00,50.00,Sunday
8,14.862202914299563
2,1, 1, 1, 0,24,50.00,60.00,Sunday
8,14.862202914299563
2,1, 1, 1, 0,24, 0.00,60.00,Sunday
95,17.965133200563867
3,1, 1, 1, 0,Sunday
96,67.80053112363125,67.42998765773784, 1,10,68.13898525606649,24,60
2,2, 1, 2, 0, 1, 0.00,10.00,Monday
8,14.862202914299563
2,2, 1, 2, 0, 1,10.00,20.00,Monday
8,14.862202914299563
2,2, 1, 2, 0, 1,20.00,30.00,Monday
8,14.862202914299563
2,2, 1, 2, 0, 1,30.00,40.00,Monday
8,14.862202914299563
2,2, 1, 2, 0, 1,40.00,50.00,Monday
8,14.862202914299563
2,2, 1, 2, 0, 1,50.00,60.00,Monday
8,14.862202914299563
2,2, 1, 2, 0, 1, 0.00,60.00,Monday
95,17.959109857074784
2,2, 1, 2, 0, 2, 0.00,10.00,Monday
8,14.862202914299563
2,2, 1, 2, 0, 2,10.00,20.00,Monday
8,14.862202914299563
2,2, 1, 2, 0, 2,20.00,30.00,Monday
8,14.862202914299563
2,2, 1, 2, 0, 2,30.00,40.00,Monday
8,14.862202914299563
2,2, 1, 2, 0, 2,40.00,50.00,Monday
8,14.862202914299563
2,2, 1, 2, 0, 2,50.00,60.00,Monday
8,14.862202914299563
2,2, 1, 2, 0, 2, 0.00,60.00,Monday
95,17.95315826065361
2,2, 1, 2, 0, 3, 0.00,10.00,Monday
8,14.862202914299563
2,2, 1, 2, 0, 3,10.00,20.00,Monday
8,14.862202914299563
2,2, 1, 2, 0, 3,20.00,30.00,Monday
8,14.862202914299563
2,2, 1, 2, 0, 3,30.00,40.00,Monday
8,14.862202914299563
2,2, 1, 2, 0, 3,40.00,50.00,Monday
8,14.862202914299563
2,2, 1, 2, 0, 3,50.00,60.00,Monday
8,14.862202914299563
2,2, 1, 2, 0, 3, 0.00,60.00,Monday
95,17.94727755604023
2,2, 1, 2, 0, 4, 0.00,10.00,Monday
8,14.862202914299563
2,2, 1, 2, 0, 4,10.00,20.00,Monday
8,14.862202914299563
2,2, 1, 2, 0, 4,20.00,30.00,Monday
8,14.862202914299563
2,2, 1, 2, 0, 4,30.00,40.00,Monday
8,14.862202914299563
2,2, 1, 2, 0, 4,40.00,50.00,Monday
8,14.862202914299563
2,2, 1, 2, 0, 4,50.00,60.00,Monday
8,14.862202914299563
2,2, 1, 2, 0, 4, 0.00,60.00,Monday
95,17.941466898070496
2,2, 1, 2, 0, 5, 0.00,10.00,Monday
8,14.862202914299563
2,2, 1, 2, 0, 5,10.00,20.00,Monday
8,14.862202914299563
2,2, 1, 2, 0, 5,20.00,30.00,Monday
8,14.862202914299563
2,2, 1, 2, 0, 5,30.00,40.00,Monday
8,14.862202914299563
2,2, 1, 2, 0, 5,40.00,50.00,Monday
8,14.862202914299563
2,2, 1, 2, 0, 5,50.00,60.00,Monday
8,14.862202914299563
2,2, 1, 2, 0, 5, 0.00,60.00,Monday
95,17.93572545157594
2,2, 1, 2, 0, 6, 0.00,10.00,Monday
8,14.862202914299563
2,2, 1, 2, 0, 6,10.00,20.00,Monday
8,14.862202914299563
2,2, 1, 2, 0, 6,20.00,30.00,Monday
8,14.862202914299563
2,2, 1, 2, 0, 6,30.00,40.00,Monday
8,14.862202914299563
2,2, 1, 2, 0, 6,40.00,50.00,Monday
8,14.862202914299563
2,2, 1, 2, 0, 6,50.00,60.00,Monday
8,14.862202914299563
2,2, 1, 2, 0, 6, 0.00,60.00,Monday
95,17.930052391274655
2,2, 1, 2, 0, 7, 0.00,10.00,Monday
8,14.862202914299563
2,2, 1, 2, 0, 7,10.00,20.00,Monday
8,14.862202914299563
2,2, 1, 2, 0, 7,20.00,30.00,Monday
8,14.862202914299563
2,2, 1, 2, 0, 7,30.00,40.00,Monday
8,14.862202914299563
2,2, 1, 2, 0, 7,40.00,50.00,Monday
8,14.862202914299563
2,2, 1, 2, 0, 7,50.00,60.00,Monday
8,14.862202914299563
2,2, 1, 2, 0, 7, 0.00,60.00,Monday
95,17.924446901652457
2,2, 1, 2, 0, 8, 0.00,10.00,Monday
8,14.862202914299563
2,2, 1, 2, 0, 8,10.00,20.00,Monday
8,14.862202914299563
2,2, 1, 2, 0, 8,20.00,30.00,Monday
8,14.862202914299563
2,2, 1, 2, 0, 8,30.00,40.00,Monday
8,14.862202914299563
2,2, 1, 2, 0, 8,40.00,50.00,Monday
8,14.862202914299563
2,2, 1, 2, 0, 8,50.00,60.00,Monday
8,14.862202914299563
2,2, 1, 2, 0, 8, 0.00,60.00,Monday
95,17.91890817684144
2,2, 1, 2, 0, 9, 0.00,10.00,Monday
8,14.862202914299563
2,2, 1, 2, 0, 9,10.00,20.00,Monday
8,14.862202914299563
2,2, 1, 2, 0, 9,20.00,30.00,Monday
8,14.862202914299563
2,2, 1, 2, 0, 9,30.00,40.00,Monday
8,14.862202914299563
2,2, 1, 2, 0, 9,40.00,50.00,Monday
8,14.862202914299563
2,2, 1, 2, 0, 9,50.00,60.00,Monday
8,14.862202914299563
2,2, 1, 2, 0, 9, 0.00,60.00,Monday
95,17.913435420510269
2,2, 1, 2, 0,10, 0.00,10.00,Monday
8,14.862202914299563
2,2, 1, 2, 0,10,10.00,20.00,Monday
8,14.862202914299563
2,2, 1, 2, 0,10,20.00,30.00,Monday
8,14.862202914299563
2,2, 1, 2, 0,10,30.00,40.00,Monday
8,14.862202914299563
2,2, 1, 2, 0,10,40.00,50.00,Monday
8,14.862202914299563
2,2, 1, 2, 0,10,50.00,60.00,Monday
8,14.862202914299563
2,2, 1, 2, 0,10, 0.00,60.00,Monday
95,17.90802784576603
2,2, 1, 2, 0,11, 0.00,10.00,Monday
8,14.862202914299563
2,2, 1, 2, 0,11,10.00,20.00,Monday
8,14.862202914299563
2,2, 1, 2, 0,11,20.00,30.00,Monday
8,14.862202914299563
2,2, 1, 2, 0,11,30.00,40.00,Monday
8,14.862202914299563
2,2, 1, 2, 0,11,40.00,50.00,Monday
8,14.862202914299563
2,2, 1, 2, 0,11,50.00,60.00,Monday
8,14.862202914299563
2,2, 1, 2, 0,11, 0.00,60.00,Monday
95,17.90268467505135
2,2, 1, 2, 0,12, 0.00,10.00,Monday
8,14.862202914299563
2,2, 1, 2, 0,12,10.00,20.00,Monday
8,14.862202914299563
2,2, 1, 2, 0,12,20.00,30.00,Monday
8,14.862202914299563
2,2, 1, 2, 0,12,30.00,40.00,Monday
8,14.862202914299563
2,2, 1, 2, 0,12,40.00,50.00,Monday
8,14.862202914299563
2,2, 1, 2, 0,12,50.00,60.00,Monday
8,14.862202914299563
2,2, 1, 2, 0,12, 0.00,60.00,Monday
95,17.897405140032835
2,2, 1, 2, 0,13, 0.00,10.00,Monday
8,14.862202914299563
2,2, 1, 2, 0,13,10.00,20.00,Monday
8,14.862202914299563
2,2, 1, 2, 0,13,20.00,30.00,Monday
8,14.862202914299563
2,2, 1, 2, 0,13,30.00,40.00,Monday
8,14.862202914299563
2,2, 1, 2, 0,13,40.00,50.00,Monday
8,14.862202914299563
2,2, 1, 2, 0,13,50.00,60.00,Monday
8,14.862202914299563
2,2, 1, 2, 0,13, 0.00,60.00,Monday
95,17.892188481500694
2,2, 1, 2, 0,14, 0.00,10.00,Monday
8,14.862202914299563
2,2, 1, 2, 0,14,10.00,20.00,Monday
8,14.862202914299563
2,2, 1, 2, 0,14,20.00,30.00,Monday
8,14.862202914299563
2,2, 1, 2, 0,14,30.00,40.00,Monday
8,14.862202914299563
2,2, 1, 2, 0,14,40.00,50.00,Monday
8,14.862202914299563
2,2, 1, 2, 0,14,50.00,60.00,Monday
8,14.862202914299563
2,2, 1, 2, 0,14, 0.00,60.00,Monday
95,17.887033949259988
2,2, 1, 2, 0,15, 0.00,10.00,Monday
8,14.862202914299563
2,2, 1, 2, 0,15,10.00,20.00,Monday
8,14.862202914299563
2,2, 1, 2, 0,15,20.00,30.00,Monday
8,14.862202914299563
2,2, 1, 2, 0,15,30.00,40.00,Monday
8,14.862202914299563
2,2, 1, 2, 0,15,40.00,50.00,Monday
8,14.862202914299563
2,2, 1, 2, 0,15,50.00,60.00,Monday
8,14.862202914299563
2,2, 1, 2, 0,15, 0.00,60.00,Monday
95,17.881940802020876
2,2, 1, 2, 0,16, 0.00,10.00,Monday
8,14.862202914299563
2,2, 1, 2, 0,16,10.00,20.00,Monday
8,14.862202914299563
2,2, 1, 2, 0,16,20.00,30.00,Monday
8,14.862202914299563
2,2, 1, 2, 0,16,30.00,40.00,Monday
8,14.862202914299563
2,2, 1, 2, 0,16,40.00,50.00,Monday
8,14.862202914299563
2,2, 1, 2, 0,16,50.00,60.00,Monday
8,14.862202914299563
2,2, 1, 2, 0,16, 0.00,60.00,Monday
95,17.876908307303585
2,2, 1, 2, 0,17, 0.00,10.00,Monday
8,14.862202914299563
2,2, 1, 2, 0,17,10.00,20.00,Monday
8,14.862202914299563
2,2, 1, 2, 0,17,20.00,30.00,Monday
8,14.862202914299563
2,2, 1, 2, 0,17,30.00,40.00,Monday
8,14.862202914299563
2,2, 1, 2, 0,17,40.00,50.00,Monday
8,14.862202914299563
2,2, 1, 2, 0,17,50.00,60.00,Monday
8,14.862202914299563
2,2, 1, 2, 0,17, 0.00,60.00,Monday
95,17.87193574133261
2,2, 1, 2, 0,18, 0.00,10.00,Monday
8,14.862202914299563
2,2, 1, 2, 0,18,10.00,20.00,Monday
8,14.862202914299563
2,2, 1, 2, 0,18,20.00,30.00,Monday
8,14.862202914299563
2,2, 1, 2, 0,18,30.00,40.00,Monday
8,14.862202914299563
2,2, 1, 2, 0,18,40.00,50.00,Monday
8,14.862202914299563
2,2, 1, 2, 0,18,50.00,60.00,Monday
8,14.862202914299563
2,2, 1, 2, 0,18, 0.00,60.00,Monday
95,17.867022388930736
2,2, 1, 2, 0,19, 0.00,10.00,Monday
8,14.862202914299563
2,2, 1, 2, 0,19,10.00,20.00,Monday
8,14.862202914299563
2,2, 1, 2, 0,19,20.00,30.00,Monday
8,14.862202914299563
2,2, 1, 2, 0,19,30.00,40.00,Monday
8,14.862202914299563
2,2, 1, 2, 0,19,40.00,50.00,Monday
8,14.862202914299563
2,2, 1, 2, 0,19,50.00,60.00,Monday
8,14.862202914299563
2,2, 1, 2, 0,19, 0.00,60.00,Monday
95,17.862167543428425
2,2, 1, 2, 0,20, 0.00,10.00,Monday
8,14.862202914299563
2,2, 1, 2, 0,20,10.00,20.00,Monday
8,14.862202914299563
2,2, 1, 2, 0,20,20.00,30.00,Monday
8,14.862202914299563
2,2, 1, 2, 0,20,30.00,40.00,Monday
8,14.862202914299563
2,2, 1, 2, 0,20,40.00,50.00,Monday
8,14.862202914299563
2,2, 1, 2, 0,20,50.00,60.00,Monday
8,14.862202914299563
2,2, 1, 2, 0,20, 0.00,60.00,Monday
95,17.857370506568175
2,2, 1, 2, 0,21, 0.00,10.00,Monday
8,14.862202914299563
2,2, 1, 2, 0,21,10.00,20.00,Monday
8,14.862202914299563
2,2, 1, 2, 0,21,20.00,30.00,Monday
8,14.862202914299563
2,2, 1, 2, 0,21,30.00,40.00,Monday
8,14.862202914299563
2,2, 1, 2, 0,21,40.00,50.00,Monday
8,14.862202914299563
2,2, 1, 2, 0,21,50.00,60.00,Monday
8,14.862202914299563
2,2, 1, 2, 0,21, 0.00,60.00,Monday
95,17.852630588404318
2,2, 1, 2, 0,22, 0.00,10.00,Monday
8,14.862202914299563
2,2, 1, 2, 0,22,10.00,20.00,Monday
8,14.862202914299563
2,2, 1, 2, 0,22,20.00,30.00,Monday
8,14.862202914299563
2,2, 1, 2, 0,22,30.00,40.00,Monday
8,14.862202914299563
2,2, 1, 2, 0,22,40.00,50.00,Monday
8,14.862202914299563
2,2, 1, 2, 0,22,50.00,60.00,Monday
8,14.862202914299563
2,2, 1, 2, 0,22, 0.00,60.00,Monday
95,17.847947107207078
2,2, 1, 2, 0,23, 0.00,10.00,Monday
8,14.862202914299563
2,2, 1, 2, 0,23,10.00,20.00,Monday
8,14.862202914299563
2,2, 1, 2, 0,23,20.00,30.00,Monday
8,14.862202914299563
2,2, 1, 2, 0,23,30.00,40.00,Monday
8,14.862202914299563
2,2, 1, 2, 0,23,40.00,50.00,Monday
8,14.862202914299563
2,2, 1, 2, 0,23,50.00,60.00,Monday
8,14.862202914299563
2,2, 1, 2, 0,23, 0.00,60.00,Monday
95,17.843319389367399
2,2, 1, 2, 0,24, 0.00,10.00,Monday
8,14.862202914299563
2,2, 1, 2, 0,24,10.00,20.00,Monday
8,14.862202914299563
2,2, 1, 2, 0,24,20.00,30.00,Monday
8,14.862202914299563
2,2, 1, 2, 0,24,30.00,40.00,Monday
8,14.862202914299563
2,2, 1, 2, 0,24,40.00,50.00,Monday
8,14.862202914299563
2,2, 1, 2, 0,24,50.00,60.00,Monday
8,14.862202914299563
2,2, 1, 2, 0,24, 0.00,60.00,Monday
95,17.838746769296283
3,2, 1, 2, 0,Monday
96,68.4242484346694,68.14329148405752, 1,10,68.6806312347421,24,60
2,3, 1, 3, 0, 1, 0.00,10.00,Tuesday
8,14.862202914299563
2,3, 1, 3, 0, 1,10.00,20.00,Tuesday
8,14.862202914299563
2,3, 1, 3, 0, 1,20.00,30.00,Tuesday
8,14.862202914299563
2,3, 1, 3, 0, 1,30.00,40.00,Tuesday
8,14.862202914299563
2,3, 1, 3, 0, 1,40.00,50.00,Tuesday
8,14.862202914299563
2,3, 1, 3, 0, 1,50.00,60.00,Tuesday
8,14.862202914299563
2,3, 1, 3, 0, 1, 0.00,60.00,Tuesday
95,17.834228589333319
2,3, 1, 3, 0, 2, 0.00,10.00,Tuesday
8,14.862202914299563
2,3, 1, 3, 0, 2,10.00,20.00,Tuesday
8,14.862202914299563
2,3, 1, 3, 0, 2,20.00,30.00,Tuesday
8,14.862202914299563
2,3, 1, 3, 0, 2,30.00,40.00,Tuesday
8,14.862202914299563
2,3, 1, 3, 0, 2,40.00,50.00,Tuesday
8,14.862202914299563
2,3, 1, 3, 0, 2,50.00,60.00,Tuesday
8,14.862202914299563
2,3, 1, 3, 0, 2, 0.00,60.00,Tuesday
95,17.829764199652816
2,3, 1, 3, 0, 3, 0.00,10.00,Tuesday
8,14.862202914299563
2,3, 1, 3, 0, 3,10.00,20.00,Tuesday
8,14.862202914299563
2,3, 1, 3, 0, 3,20.00,30.00,Tuesday
8,14.862202914299563
2,3, 1, 3, 0, 3,30.00,40.00,Tuesday
8,14.862202914299563
2,3, 1, 3, 0, 3,40.00,50.00,Tuesday
8,14.862202914299563
2,3, 1, 3, 0, 3,50.00,60.00,Tuesday
8,14.862202914299563
2,3, 1, 3, 0, 3, 0.00,60.00,Tuesday
95,17.825352958172105
2,3, 1, 3, 0, 4, 0.00,10.00,Tuesday
8,14.862202914299563
2,3, 1, 3, 0, 4,10.00,20.00,Tuesday
8,14.862202914299563
2,3, 1, 3, 0, 4,20.00,30.00,Tuesday
8,14.862202914299563
2,3, 1, 3, 0, 4,30.00,40.00,Tuesday
8,14.862202914299563
2,3, 1, 3, 0, 4,40.00,50.00,Tuesday
8,14.862202914299563
2,3, 1, 3, 0, 4,50.00,60.00,Tuesday
8,14.862202914299563
2,3, 1, 3, 0, 4, 0.00,60.00,Tuesday
95,17.820994230469127
2,3, 1, 3, 0, 5, 0.00,10.00,Tuesday
8,14.862202914299563
2,3, 1, 3, 0, 5,10.00,20.00,Tuesday
8,14.862202914299563
2,3, 1, 3, 0, 5,20.00,30.00,Tuesday
8,14.862202914299563
2,3, 1, 3, 0, 5,30.00,40.00,Tuesday
8,14.862202914299563
2,3, 1, 3, 0, 5,40.00,50.00,Tuesday
8,14.862202914299563
2,3, 1, 3, 0, 5,50.00,60.00,Tuesday
8,14.862202914299563
2,3, 1, 3, 0, 5, 0.00,60.00,Tuesday
95,17.816687389687187
2,3, 1, 3, 0, 6, 0.00,10.00,Tuesday
8,14.862202914299563
2,3, 1, 3, 0, 6,10.00,20.00,Tuesday
8,14.862202914299563
2,3, 1, 3, 0, 6,20.00,30.00,Tuesday
8,14.862202914299563
2,3, 1, 3, 0, 6,30.00,40.00,Tuesday
8,14.862202914299563
2,3, 1, 3, 0, 6,40.00,50.00,Tuesday
8,14.862202914299563
2,3, 1, 3, 0, 6,50.00,60.00,Tuesday
8,14.862202914299563
2,3, 1, 3, 0, 6, 0.00,60.00,Tuesday
95,17.81243181644435
2,3, 1, 3, 0, 7, 0.00,10.00,Tuesday
8,14.862202914299563
2,3, 1, 3, 0, 7,10.00,20.00,Tuesday
8,14.862202914299563
2,3, 1, 3, 0, 7,20.00,30.00,Tuesday
8,14.862202914299563
2,3, 1, 3, 0, 7,30.00,40.00,Tuesday
8,14.862202914299563
2,3, 1, 3, 0, 7,40.00,50.00,Tuesday
8,14.862202914299563
2,3, 1, 3, 0, 7,50.00,60.00,Tuesday
8,14.862202914299563
2,3, 1, 3, 0, 7, 0.00,60.00,Tuesday
95,17.8082268987508
2,3, 1, 3, 0, 8, 0.00,10.00,Tuesday
8,14.862202914299563
2,3, 1, 3, 0, 8,10.00,20.00,Tuesday
8,14.862202914299563
2,3, 1, 3, 0, 8,20.00,30.00,Tuesday
8,14.862202914299563
2,3, 1, 3, 0, 8,30.00,40.00,Tuesday
8,14.862202914299563
2,3, 1, 3, 0, 8,40.00,50.00,Tuesday
8,14.862202914299563
2,3, 1, 3, 0, 8,50.00,60.00,Tuesday
8,14.862202914299563
2,3, 1, 3, 0, 8, 0.00,60.00,Tuesday
95,17.80407203192205
2,3, 1, 3, 0, 9, 0.00,10.00,Tuesday
8,14.862202914299563
2,3, 1, 3, 0, 9,10.00,20.00,Tuesday
8,14.862202914299563
2,3, 1, 3, 0, 9,20.00,30.00,Tuesday
8,14.862202914299563
2,3, 1, 3, 0, 9,30.00,40.00,Tuesday
8,14.862202914299563
2,3, 1, 3, 0, 9,40.00,50.00,Tuesday
8,14.862202914299563
2,3, 1, 3, 0, 9,50.00,60.00,Tuesday
8,14.862202914299563
2,3, 1, 3, 0, 9, 0.00,60.00,Tuesday
95,17.799966618485354
2,3, 1, 3, 0,10, 0.00,10.00,Tuesday
8,14.862202914299563
2,3, 1, 3, 0,10,10.00,20.00,Tuesday
8,14.862202914299563
2,3, 1, 3, 0,10,20.00,30.00,Tuesday
8,14.862202914299563
2,3, 1, 3, 0,10,30.00,40.00,Tuesday
8,14.862202914299563
2,3, 1, 3, 0,10,40.00,50.00,Tuesday
8,14.862202914299563
2,3, 1, 3, 0,10,50.00,60.00,Tuesday
8,14.862202914299563
2,3, 1, 3, 0,10, 0.00,60.00,Tuesday
95,17.79591006809611
2,3, 1, 3, 0,11, 0.00,10.00,Tuesday
8,14.862202914299563
2,3, 1, 3, 0,11,10.00,20.00,Tuesday
8,14.862202914299563
2,3, 1, 3, 0,11,20.00,30.00,Tuesday
8,14.862202914299563
2,3, 1, 3, 0,11,30.00,40.00,Tuesday
8,14.862202914299563
2,3, 1, 3, 0,11,40.00,50.00,Tuesday
8,14.862202914299563
2,3, 1, 3, 0,11,50.00,60.00,Tuesday
8,14.862202914299563
2,3, 1, 3, 0,11, 0.00,60.00,Tuesday
95,17.791901797457049
2,3, 1, 3, 0,12, 0.00,10.00,Tuesday
8,14.862202914299563
2,3, 1, 3, 0,12,10.00,20.00,Tuesday
8,14.862202914299563
2,3, 1, 3, 0,12,20.00,30.00,Tuesday
8,14.862202914299563
2,3, 1, 3, 0,12,30.00,40.00,Tuesday
8,14.862202914299563
2,3, 1, 3, 0,12,40.00,50.00,Tuesday
8,14.862202914299563
2,3, 1, 3, 0,12,50.00,60.00,Tuesday
8,14.862202914299563
2,3, 1, 3, 0,12, 0.00,60.00,Tuesday
95,17.787941230240887
2,3, 1, 3, 0,13, 0.00,10.00,Tuesday
8,14.862202914299563
2,3, 1, 3, 0,13,10.00,20.00,Tuesday
8,14.862202914299563
2,3, 1, 3, 0,13,20.00,30.00,Tuesday
8,14.862202914299563
2,3, 1, 3, 0,13,30.00,40.00,Tuesday
8,14.862202914299563
2,3, 1, 3, 0,13,40.00,50.00,Tuesday
8,14.862202914299563
2,3, 1, 3, 0,13,50.00,60.00,Tuesday
8,14.862202914299563
2,3, 1, 3, 0,13, 0.00,60.00,Tuesday
95,17.784027797004243
2,3, 1, 3, 0,14, 0.00,10.00,Tuesday
8,14.862202914299563
2,3, 1, 3, 0,14,10.00,20.00,Tuesday
8,14.862202914299563
2,3, 1, 3, 0,14,20.00,30.00,Tuesday
8,14.862202914299563
2,3, 1, 3, 0,14,30.00,40.00,Tuesday
8,14.862202914299563
2,3, 1, 3, 0,14,40.00,50.00,Tuesday
8,14.862202914299563
2,3, 1, 3, 0,14,50.00,60.00,Tuesday
8,14.862202914299563
2,3, 1, 3, 0,14, 0.00,60.00,Tuesday
95,17.780160935103504
2,3, 1, 3, 0,15, 0.00,10.00,Tuesday
8,14.862202914299563
2,3, 1, 3, 0,15,10.00,20.00,Tuesday
8,14.862202914299563
2,3, 1, 3, 0,15,20.00,30.00,Tuesday
8,14.862202914299563
2,3, 1, 3, 0,15,30.00,40.00,Tuesday
8,14.862202914299563
2,3, 1, 3, 0,15,40.00,50.00,Tuesday
8,14.862202914299563
2,3, 1, 3, 0,15,50.00,60.00,Tuesday
8,14.862202914299563
2,3, 1, 3, 0,15, 0.00,60.00,Tuesday
95,17.77634008860996
2,3, 1, 3, 0,16, 0.00,10.00,Tuesday
8,14.862202914299563
2,3, 1, 3, 0,16,10.00,20.00,Tuesday
8,14.862202914299563
2,3, 1, 3, 0,16,20.00,30.00,Tuesday
8,14.862202914299563
2,3, 1, 3, 0,16,30.00,40.00,Tuesday
8,14.862202914299563
2,3, 1, 3, 0,16,40.00,50.00,Tuesday
8,14.862202914299563
2,3, 1, 3, 0,16,50.00,60.00,Tuesday
8,14.862202914299563
2,3, 1, 3, 0,16, 0.00,60.00,Tuesday
95,17.7725647082362
2,3, 1, 3, 0,17, 0.00,10.00,Tuesday
8,14.862202914299563
2,3, 1, 3, 0,17,10.00,20.00,Tuesday
8,14.862202914299563
2,3, 1, 3, 0,17,20.00,30.00,Tuesday
8,14.862202914299563
2,3, 1, 3, 0,17,30.00,40.00,Tuesday
8,14.862202914299563
2,3, 1, 3, 0,17,40.00,50.00,Tuesday
8,14.862202914299563
2,3, 1, 3, 0,17,50.00,60.00,Tuesday
8,14.862202914299563
2,3, 1, 3, 0,17, 0.00,60.00,Tuesday
95,17.768834251263625
2,3, 1, 3, 0,18, 0.00,10.00,Tuesday
8,14.862202914299563
2,3, 1, 3, 0,18,10.00,20.00,Tuesday
8,14.862202914299563
2,3, 1, 3, 0,18,20.00,30.00,Tuesday
8,14.862202914299563
2,3, 1, 3, 0,18,30.00,40.00,Tuesday
8,14.862202914299563
2,3, 1, 3, 0,18,40.00,50.00,Tuesday
8,14.862202914299563
2,3, 1, 3, 0,18,50.00,60.00,Tuesday
8,14.862202914299563
2,3, 1, 3, 0,18, 0.00,60.00,Tuesday
95,17.765148181456895
2,3, 1, 3, 0,19, 0.00,10.00,Tuesday
8,14.862202914299563
2,3, 1, 3, 0,19,10.00,20.00,Tuesday
8,14.862202914299563
2,3, 1, 3, 0,19,20.00,30.00,Tuesday
8,14.862202914299563
2,3, 1, 3, 0,19,30.00,40.00,Tuesday
8,14.862202914299563
2,3, 1, 3, 0,19,40.00,50.00,Tuesday
8,14.862202914299563
2,3, 1, 3, 0,19,50.00,60.00,Tuesday
8,14.862202914299563
2,3, 1, 3, 0,19, 0.00,60.00,Tuesday
95,17.761505968987195
2,3, 1, 3, 0,20, 0.00,10.00,Tuesday
8,14.862202914299563
2,3, 1, 3, 0,20,10.00,20.00,Tuesday
8,14.862202914299563
2,3, 1, 3, 0,20,20.00,30.00,Tuesday
8,14.862202914299563
2,3, 1, 3, 0,20,30.00,40.00,Tuesday
8,14.862202914299563
2,3, 1, 3, 0,20,40.00,50.00,Tuesday
8,14.862202914299563
2,3, 1, 3, 0,20,50.00,60.00,Tuesday
8,14.862202914299563
2,3, 1, 3, 0,20, 0.00,60.00,Tuesday
95,17.757907090362918
2,3, 1, 3, 0,21, 0.00,10.00,Tuesday
8,14.862202914299563
2,3, 1, 3, 0,21,10.00,20.00,Tuesday
8,14.862202914299563
2,3, 1, 3, 0,21,20.00,30.00,Tuesday
8,14.862202914299563
2,3, 1, 3, 0,21,30.00,40.00,Tuesday
8,14.862202914299563
2,3, 1, 3, 0,21,40.00,50.00,Tuesday
8,14.862202914299563
2,3, 1, 3, 0,21,50.00,60.00,Tuesday
8,14.862202914299563
2,3, 1, 3, 0,21, 0.00,60.00,Tuesday
95,17.75435102834698
2,3, 1, 3, 0,22, 0.00,10.00,Tuesday
8,14.862202914299563
2,3, 1, 3, 0,22,10.00,20.00,Tuesday
8,14.862202914299563
2,3, 1, 3, 0,22,20.00,30.00,Tuesday
8,14.862202914299563
2,3, 1, 3, 0,22,30.00,40.00,Tuesday
8,14.862202914299563
2,3, 1, 3, 0,22,40.00,50.00,Tuesday
8,14.862202914299563
2,3, 1, 3, 0,22,50.00,60.00,Tuesday
8,14.862202914299563
2,3, 1, 3, 0,22, 0.00,60.00,Tuesday
95,17.750837271882025
2,3, 1, 3, 0,23, 0.00,10.00,Tuesday
8,14.862202914299563
2,3, 1, 3, 0,23,10.00,20.00,Tuesday
8,14.862202914299563
2,3, 1, 3, 0,23,20.00,30.00,Tuesday
8,14.862202914299563
2,3, 1, 3, 0,23,30.00,40.00,Tuesday
8,14.862202914299563
2,3, 1, 3, 0,23,40.00,50.00,Tuesday
8,14.862202914299563
2,3, 1, 3, 0,23,50.00,60.00,Tuesday
8,14.862202914299563
2,3, 1, 3, 0,23, 0.00,60.00,Tuesday
95,17.747365316026387
2,3, 1, 3, 0,24, 0.00,10.00,Tuesday
8,14.862202914299563
2,3, 1, 3, 0,24,10.00,20.00,Tuesday
8,14.862202914299563
2,3, 1, 3, 0,24,20.00,30.00,Tuesday
8,14.862202914299563
2,3, 1, 3, 0,24,30.00,40.00,Tuesday
8,14.862202914299563
2,3, 1, 3, 0,24,40.00,50.00,Tuesday
8,14.862202914299563
2,3, 1, 3, 0,24,50.00,60.00,Tuesday
8,14.862202914299563
2,3, 1, 3, 0,24, 0.00,60.00,Tuesday
95,17.743934661876055
3,3, 1, 3, 0,Tuesday
96,68.8963710161509,68.68389076585015, 1,10,69.0901371701231,24,60
2,4, 1, 4, 0, 1, 0.00,10.00,Wednesday
8,14.862202914299563
2,4, 1, 4, 0, 1,10.00,20.00,Wednesday
8,14.862202914299563
2,4, 1, 4, 0, 1,20.00,30.00,Wednesday
8,14.862202914299563
2,4, 1, 4, 0, 1,30.00,40.00,Wednesday
8,14.862202914299563